   5   5   1   0
  0.4307497E+02  0.5994206E-09  0.5994206E-09  0.5994206E-09  0.5000000E-15
  1.000000000000000E-004
  CAR 
 unknown system                          
      7.41189873    -22.24600330  301      0.78984529      1.00000000
    -22.246  0.0000E+00  0.0000E+00
    -22.147  0.0000E+00  0.0000E+00
    -22.048  0.0000E+00  0.0000E+00
    -21.949  0.0000E+00  0.0000E+00
    -21.851  0.0000E+00  0.0000E+00
    -21.752  0.0000E+00  0.0000E+00
    -21.653  0.0000E+00  0.0000E+00
    -21.554  0.0000E+00  0.0000E+00
    -21.455  0.2953E-13  0.2920E-14
    -21.356  0.8354E-09  0.8259E-10
    -21.257  0.3476E-05  0.3437E-06
    -21.159  0.2180E-02  0.2159E-03
    -21.060  0.2139E+00  0.2136E-01
    -20.961  0.3489E+01  0.3662E+00
    -20.862  0.1025E+02  0.1379E+01
    -20.763  0.5690E+01  0.1942E+01
    -20.664  0.5807E+00  0.1999E+01
    -20.565  0.1008E-01  0.2000E+01
    -20.467  0.2779E-04  0.2000E+01
    -20.368  0.1165E-07  0.2000E+01
    -20.269  0.7240E-12  0.2000E+01
    -20.170  0.0000E+00  0.2000E+01
    -20.071  0.0000E+00  0.2000E+01
    -19.972  0.0000E+00  0.2000E+01
    -19.873  0.0000E+00  0.2000E+01
    -19.775  0.0000E+00  0.2000E+01
    -19.676  0.0000E+00  0.2000E+01
    -19.577  0.0000E+00  0.2000E+01
    -19.478  0.0000E+00  0.2000E+01
    -19.379  0.0000E+00  0.2000E+01
    -19.280  0.0000E+00  0.2000E+01
    -19.181  0.0000E+00  0.2000E+01
    -19.082  0.0000E+00  0.2000E+01
    -18.984  0.0000E+00  0.2000E+01
    -18.885  0.0000E+00  0.2000E+01
    -18.786  0.0000E+00  0.2000E+01
    -18.687  0.0000E+00  0.2000E+01
    -18.588  0.0000E+00  0.2000E+01
    -18.489  0.0000E+00  0.2000E+01
    -18.390  0.0000E+00  0.2000E+01
    -18.292  0.0000E+00  0.2000E+01
    -18.193  0.0000E+00  0.2000E+01
    -18.094  0.0000E+00  0.2000E+01
    -17.995  0.0000E+00  0.2000E+01
    -17.896  0.0000E+00  0.2000E+01
    -17.797  0.0000E+00  0.2000E+01
    -17.698  0.0000E+00  0.2000E+01
    -17.600  0.0000E+00  0.2000E+01
    -17.501  0.0000E+00  0.2000E+01
    -17.402  0.0000E+00  0.2000E+01
    -17.303  0.0000E+00  0.2000E+01
    -17.204  0.0000E+00  0.2000E+01
    -17.105  0.0000E+00  0.2000E+01
    -17.006  0.0000E+00  0.2000E+01
    -16.908  0.0000E+00  0.2000E+01
    -16.809  0.0000E+00  0.2000E+01
    -16.710  0.0000E+00  0.2000E+01
    -16.611  0.0000E+00  0.2000E+01
    -16.512  0.0000E+00  0.2000E+01
    -16.413  0.0000E+00  0.2000E+01
    -16.314  0.0000E+00  0.2000E+01
    -16.216  0.0000E+00  0.2000E+01
    -16.117  0.0000E+00  0.2000E+01
    -16.018  0.0000E+00  0.2000E+01
    -15.919  0.0000E+00  0.2000E+01
    -15.820  0.0000E+00  0.2000E+01
    -15.721  0.0000E+00  0.2000E+01
    -15.622  0.0000E+00  0.2000E+01
    -15.524  0.0000E+00  0.2000E+01
    -15.425  0.0000E+00  0.2000E+01
    -15.326  0.0000E+00  0.2000E+01
    -15.227  0.0000E+00  0.2000E+01
    -15.128  0.0000E+00  0.2000E+01
    -15.029  0.0000E+00  0.2000E+01
    -14.930  0.0000E+00  0.2000E+01
    -14.832  0.0000E+00  0.2000E+01
    -14.733  0.0000E+00  0.2000E+01
    -14.634  0.0000E+00  0.2000E+01
    -14.535  0.3685E-15  0.2000E+01
    -14.436  0.1091E-10  0.2000E+01
    -14.337  0.4962E-07  0.2000E+01
    -14.238  0.3679E-04  0.2000E+01
    -14.140  0.5118E-02  0.2001E+01
    -14.041  0.1655E+00  0.2017E+01
    -13.942  0.1554E+01  0.2170E+01
    -13.843  0.5155E+01  0.2680E+01
    -13.744  0.8401E+01  0.3511E+01
    -13.645  0.1372E+02  0.4867E+01
    -13.546  0.1860E+02  0.6706E+01
    -13.447  0.1097E+02  0.7790E+01
    -13.349  0.2027E+01  0.7991E+01
    -13.250  0.9284E-01  0.8000E+01
    -13.151  0.8858E-03  0.8000E+01
    -13.052  0.1519E-05  0.8000E+01
    -12.953  0.4222E-09  0.8000E+01
    -12.854  0.1790E-13  0.8000E+01
    -12.755  0.0000E+00  0.8000E+01
    -12.657  0.0000E+00  0.8000E+01
    -12.558  0.0000E+00  0.8000E+01
    -12.459  0.0000E+00  0.8000E+01
    -12.360  0.0000E+00  0.8000E+01
    -12.261  0.0000E+00  0.8000E+01
    -12.162  0.0000E+00  0.8000E+01
    -12.063  0.0000E+00  0.8000E+01
    -11.965  0.0000E+00  0.8000E+01
    -11.866  0.0000E+00  0.8000E+01
    -11.767  0.0000E+00  0.8000E+01
    -11.668  0.0000E+00  0.8000E+01
    -11.569  0.0000E+00  0.8000E+01
    -11.470  0.0000E+00  0.8000E+01
    -11.371  0.0000E+00  0.8000E+01
    -11.273  0.0000E+00  0.8000E+01
    -11.174  0.0000E+00  0.8000E+01
    -11.075  0.0000E+00  0.8000E+01
    -10.976  0.0000E+00  0.8000E+01
    -10.877  0.0000E+00  0.8000E+01
    -10.778  0.0000E+00  0.8000E+01
    -10.679  0.0000E+00  0.8000E+01
    -10.581  0.0000E+00  0.8000E+01
    -10.482  0.0000E+00  0.8000E+01
    -10.383  0.0000E+00  0.8000E+01
    -10.284  0.0000E+00  0.8000E+01
    -10.185  0.0000E+00  0.8000E+01
    -10.086  0.0000E+00  0.8000E+01
     -9.987  0.0000E+00  0.8000E+01
     -9.889  0.0000E+00  0.8000E+01
     -9.790  0.0000E+00  0.8000E+01
     -9.691  0.0000E+00  0.8000E+01
     -9.592  0.0000E+00  0.8000E+01
     -9.493  0.0000E+00  0.8000E+01
     -9.394  0.0000E+00  0.8000E+01
     -9.295  0.0000E+00  0.8000E+01
     -9.197  0.0000E+00  0.8000E+01
     -9.098  0.0000E+00  0.8000E+01
     -8.999  0.0000E+00  0.8000E+01
     -8.900  0.0000E+00  0.8000E+01
     -8.801  0.1755E-16  0.8000E+01
     -8.702  0.5278E-12  0.8000E+01
     -8.603  0.4154E-08  0.8000E+01
     -8.505  0.4886E-05  0.8000E+01
     -8.406  0.8855E-03  0.8000E+01
     -8.307  0.2608E-01  0.8003E+01
     -8.208  0.1359E+00  0.8016E+01
     -8.109  0.1959E+00  0.8035E+01
     -8.010  0.6037E+00  0.8095E+01
     -7.911  0.1021E+01  0.8196E+01
     -7.812  0.2822E+01  0.8475E+01
     -7.714  0.1944E+02  0.1040E+02
     -7.615  0.3226E+02  0.1359E+02
     -7.516  0.1262E+02  0.1483E+02
     -7.417  0.3733E+01  0.1520E+02
     -7.318  0.1361E+01  0.1534E+02
     -7.219  0.1856E+01  0.1552E+02
     -7.120  0.2089E+01  0.1573E+02
     -7.022  0.6029E+00  0.1579E+02
     -6.923  0.6573E+00  0.1585E+02
     -6.824  0.9201E+00  0.1594E+02
     -6.725  0.2553E+00  0.1597E+02
     -6.626  0.4868E-01  0.1597E+02
     -6.527  0.1480E+00  0.1599E+02
     -6.428  0.1138E+00  0.1600E+02
     -6.330  0.1627E-01  0.1600E+02
     -6.231  0.4021E-03  0.1600E+02
     -6.132  0.1596E-05  0.1600E+02
     -6.033  0.9695E-09  0.1600E+02
     -5.934  0.8770E-13  0.1600E+02
     -5.835  0.0000E+00  0.1600E+02
     -5.736  0.0000E+00  0.1600E+02
     -5.638  0.0000E+00  0.1600E+02
     -5.539  0.0000E+00  0.1600E+02
     -5.440  0.0000E+00  0.1600E+02
     -5.341  0.0000E+00  0.1600E+02
     -5.242  0.0000E+00  0.1600E+02
     -5.143  0.0000E+00  0.1600E+02
     -5.044  0.0000E+00  0.1600E+02
     -4.946  0.0000E+00  0.1600E+02
     -4.847  0.0000E+00  0.1600E+02
     -4.748  0.0000E+00  0.1600E+02
     -4.649  0.0000E+00  0.1600E+02
     -4.550  0.0000E+00  0.1600E+02
     -4.451  0.0000E+00  0.1600E+02
     -4.352  0.0000E+00  0.1600E+02
     -4.254  0.0000E+00  0.1600E+02
     -4.155  0.0000E+00  0.1600E+02
     -4.056  0.5264E-16  0.1600E+02
     -3.957  0.2981E-11  0.1600E+02
     -3.858  0.2218E-07  0.1600E+02
     -3.759  0.2636E-04  0.1600E+02
     -3.660  0.5471E-02  0.1600E+02
     -3.562  0.2263E+00  0.1602E+02
     -3.463  0.2195E+01  0.1624E+02
     -3.364  0.5906E+01  0.1682E+02
     -3.265  0.5103E+01  0.1733E+02
     -3.166  0.1564E+01  0.1748E+02
     -3.067  0.1679E+00  0.1750E+02
     -2.968  0.2335E-01  0.1750E+02
     -2.870  0.5180E+00  0.1755E+02
     -2.771  0.3242E+01  0.1787E+02
     -2.672  0.6351E+01  0.1850E+02
     -2.573  0.6108E+01  0.1911E+02
     -2.474  0.5063E+01  0.1961E+02
     -2.375  0.5460E+01  0.2015E+02
     -2.276  0.3455E+01  0.2049E+02
     -2.177  0.3773E+01  0.2086E+02
     -2.079  0.5954E+01  0.2145E+02
     -1.980  0.5275E+01  0.2197E+02
     -1.881  0.4709E+01  0.2244E+02
     -1.782  0.6311E+01  0.2306E+02
     -1.683  0.1017E+02  0.2406E+02
     -1.584  0.1082E+02  0.2513E+02
     -1.485  0.1480E+02  0.2660E+02
     -1.387  0.1626E+02  0.2820E+02
     -1.288  0.1530E+02  0.2972E+02
     -1.189  0.1698E+02  0.3140E+02
     -1.090  0.9477E+01  0.3233E+02
     -0.991  0.3401E+01  0.3267E+02
     -0.892  0.2250E+01  0.3289E+02
     -0.793  0.1934E+01  0.3308E+02
     -0.695  0.3082E+01  0.3339E+02
     -0.596  0.2410E+01  0.3363E+02
     -0.497  0.5925E+00  0.3368E+02
     -0.398  0.9395E-01  0.3369E+02
     -0.299  0.4339E+00  0.3374E+02
     -0.200  0.9746E+00  0.3383E+02
     -0.101  0.1041E+01  0.3394E+02
     -0.003  0.3122E+00  0.3397E+02
      0.096  0.1837E-01  0.3397E+02
      0.195  0.1555E-01  0.3397E+02
      0.294  0.1113E+00  0.3398E+02
      0.393  0.1495E+00  0.3400E+02
      0.492  0.3785E-01  0.3400E+02
      0.591  0.1702E-02  0.3400E+02
      0.689  0.1256E-04  0.3400E+02
      0.788  0.1439E-07  0.3400E+02
      0.887  0.2472E-11  0.3400E+02
      0.986  0.7019E-16  0.3400E+02
      1.085  0.0000E+00  0.3400E+02
      1.184  0.0000E+00  0.3400E+02
      1.283  0.0000E+00  0.3400E+02
      1.381  0.0000E+00  0.3400E+02
      1.480  0.0000E+00  0.3400E+02
      1.579  0.9860E-12  0.3400E+02
      1.678  0.8496E-08  0.3400E+02
      1.777  0.1093E-04  0.3400E+02
      1.876  0.2163E-02  0.3400E+02
      1.975  0.6933E-01  0.3401E+02
      2.073  0.3888E+00  0.3405E+02
      2.172  0.4649E+00  0.3409E+02
      2.271  0.8746E+00  0.3418E+02
      2.370  0.1980E+01  0.3437E+02
      2.469  0.1501E+01  0.3452E+02
      2.568  0.2668E+01  0.3479E+02
      2.667  0.2352E+01  0.3502E+02
      2.765  0.1734E+01  0.3519E+02
      2.864  0.1790E+01  0.3537E+02
      2.963  0.6895E+00  0.3543E+02
      3.062  0.4940E+00  0.3548E+02
      3.161  0.1553E+00  0.3550E+02
      3.260  0.9077E-02  0.3550E+02
      3.359  0.1526E-03  0.3550E+02
      3.458  0.5279E-02  0.3550E+02
      3.556  0.8699E-01  0.3551E+02
      3.655  0.4880E+00  0.3556E+02
      3.754  0.1194E+01  0.3568E+02
      3.853  0.2105E+01  0.3588E+02
      3.952  0.3975E+01  0.3628E+02
      4.051  0.5494E+01  0.3682E+02
      4.150  0.7038E+01  0.3752E+02
      4.248  0.5794E+01  0.3809E+02
      4.347  0.3514E+01  0.3844E+02
      4.446  0.9187E+00  0.3853E+02
      4.545  0.2585E+00  0.3855E+02
      4.644  0.9648E+00  0.3865E+02
      4.743  0.1790E+01  0.3882E+02
      4.842  0.2392E+01  0.3906E+02
      4.940  0.1296E+01  0.3919E+02
      5.039  0.1759E+01  0.3936E+02
      5.138  0.2522E+01  0.3961E+02
      5.237  0.2717E+01  0.3988E+02
      5.336  0.3529E+01  0.4023E+02
      5.435  0.7804E+01  0.4100E+02
      5.534  0.8062E+01  0.4180E+02
      5.632  0.5636E+01  0.4236E+02
      5.731  0.5543E+01  0.4290E+02
      5.830  0.4250E+01  0.4332E+02
      5.929  0.3265E+01  0.4365E+02
      6.028  0.2514E+01  0.4389E+02
      6.127  0.8752E+00  0.4398E+02
      6.226  0.1798E+00  0.4400E+02
      6.324  0.1047E-01  0.4400E+02
      6.423  0.1080E-03  0.4400E+02
      6.522  0.1752E-06  0.4400E+02
      6.621  0.4291E-10  0.4400E+02
      6.720  0.1474E-14  0.4400E+02
      6.819  0.0000E+00  0.4400E+02
      6.918  0.0000E+00  0.4400E+02
      7.016  0.0000E+00  0.4400E+02
      7.115  0.0000E+00  0.4400E+02
      7.214  0.0000E+00  0.4400E+02
      7.313  0.0000E+00  0.4400E+02
      7.412  0.0000E+00  0.4400E+02
      7.41189873    -22.24600330  301      0.78984529      1.00000000
    -22.246  0.0000E+00  0.0000E+00  0.0000E+00  0.0000E+00  0.0000E+00  0.0000E+00  0.0000E+00  0.0000E+00  0.0000E+00
    -22.147  0.0000E+00  0.0000E+00  0.0000E+00  0.0000E+00  0.0000E+00  0.0000E+00  0.0000E+00  0.0000E+00  0.0000E+00
    -22.048  0.0000E+00  0.0000E+00  0.0000E+00  0.0000E+00  0.0000E+00  0.0000E+00  0.0000E+00  0.0000E+00  0.0000E+00
    -21.949  0.0000E+00  0.0000E+00  0.0000E+00  0.0000E+00  0.0000E+00  0.0000E+00  0.0000E+00  0.0000E+00  0.0000E+00
    -21.851  0.0000E+00  0.0000E+00  0.0000E+00  0.0000E+00  0.0000E+00  0.0000E+00  0.0000E+00  0.0000E+00  0.0000E+00
    -21.752  0.0000E+00  0.0000E+00  0.0000E+00  0.0000E+00  0.0000E+00  0.0000E+00  0.0000E+00  0.0000E+00  0.0000E+00
    -21.653  0.0000E+00  0.0000E+00  0.0000E+00  0.0000E+00  0.0000E+00  0.0000E+00  0.0000E+00  0.0000E+00  0.0000E+00
    -21.554  0.0000E+00  0.0000E+00  0.0000E+00  0.0000E+00  0.0000E+00  0.0000E+00  0.0000E+00  0.0000E+00  0.0000E+00
    -21.455  0.1109E-19  0.3031E-20  0.3031E-20  0.3031E-20  0.3115E-21  0.3115E-21  0.2387E-26  0.3115E-21  0.2387E-26
    -21.356  0.3135E-15  0.8585E-16  0.8585E-16  0.8585E-16  0.8821E-17  0.8821E-17  0.6734E-22  0.8821E-17  0.6734E-22
    -21.257  0.1293E-11  0.3563E-12  0.3563E-12  0.3563E-12  0.3682E-13  0.3682E-13  0.2773E-18  0.3682E-13  0.2773E-18
    -21.159  0.8037E-09  0.2228E-09  0.2228E-09  0.2228E-09  0.2317E-10  0.2317E-10  0.1722E-15  0.2317E-10  0.1722E-15
    -21.060  0.7815E-07  0.2180E-07  0.2180E-07  0.2180E-07  0.2279E-08  0.2279E-08  0.1672E-13  0.2279E-08  0.1672E-13
    -20.961  0.1264E-05  0.3547E-06  0.3547E-06  0.3547E-06  0.3728E-07  0.3728E-07  0.2701E-12  0.3728E-07  0.2701E-12
    -20.862  0.3683E-05  0.1039E-05  0.1039E-05  0.1039E-05  0.1098E-06  0.1098E-06  0.7859E-12  0.1098E-06  0.7859E-12
    -20.763  0.2029E-05  0.5756E-06  0.5756E-06  0.5756E-06  0.6113E-07  0.6113E-07  0.4325E-12  0.6113E-07  0.4325E-12
    -20.664  0.2054E-06  0.5860E-07  0.5860E-07  0.5860E-07  0.6256E-08  0.6256E-08  0.4372E-13  0.6256E-08  0.4372E-13
    -20.565  0.3536E-08  0.1015E-08  0.1015E-08  0.1015E-08  0.1089E-09  0.1089E-09  0.7514E-15  0.1089E-09  0.7514E-15
    -20.467  0.9660E-11  0.2789E-11  0.2789E-11  0.2789E-11  0.3012E-12  0.3012E-12  0.2050E-17  0.3012E-12  0.2050E-17
    -20.368  0.4012E-14  0.1166E-14  0.1166E-14  0.1166E-14  0.1266E-15  0.1266E-15  0.8502E-21  0.1266E-15  0.8502E-21
    -20.269  0.2471E-18  0.7221E-19  0.7221E-19  0.7221E-19  0.7891E-20  0.7891E-20  0.5227E-25  0.7891E-20  0.5227E-25
    -20.170  0.0000E+00  0.0000E+00  0.0000E+00  0.0000E+00  0.0000E+00  0.0000E+00  0.0000E+00  0.0000E+00  0.0000E+00
    -20.071  0.0000E+00  0.0000E+00  0.0000E+00  0.0000E+00  0.0000E+00  0.0000E+00  0.0000E+00  0.0000E+00  0.0000E+00
    -19.972  0.0000E+00  0.0000E+00  0.0000E+00  0.0000E+00  0.0000E+00  0.0000E+00  0.0000E+00  0.0000E+00  0.0000E+00
    -19.873  0.0000E+00  0.0000E+00  0.0000E+00  0.0000E+00  0.0000E+00  0.0000E+00  0.0000E+00  0.0000E+00  0.0000E+00
    -19.775  0.0000E+00  0.0000E+00  0.0000E+00  0.0000E+00  0.0000E+00  0.0000E+00  0.0000E+00  0.0000E+00  0.0000E+00
    -19.676  0.0000E+00  0.0000E+00  0.0000E+00  0.0000E+00  0.0000E+00  0.0000E+00  0.0000E+00  0.0000E+00  0.0000E+00
    -19.577  0.0000E+00  0.0000E+00  0.0000E+00  0.0000E+00  0.0000E+00  0.0000E+00  0.0000E+00  0.0000E+00  0.0000E+00
    -19.478  0.0000E+00  0.0000E+00  0.0000E+00  0.0000E+00  0.0000E+00  0.0000E+00  0.0000E+00  0.0000E+00  0.0000E+00
    -19.379  0.0000E+00  0.0000E+00  0.0000E+00  0.0000E+00  0.0000E+00  0.0000E+00  0.0000E+00  0.0000E+00  0.0000E+00
    -19.280  0.0000E+00  0.0000E+00  0.0000E+00  0.0000E+00  0.0000E+00  0.0000E+00  0.0000E+00  0.0000E+00  0.0000E+00
    -19.181  0.0000E+00  0.0000E+00  0.0000E+00  0.0000E+00  0.0000E+00  0.0000E+00  0.0000E+00  0.0000E+00  0.0000E+00
    -19.082  0.0000E+00  0.0000E+00  0.0000E+00  0.0000E+00  0.0000E+00  0.0000E+00  0.0000E+00  0.0000E+00  0.0000E+00
    -18.984  0.0000E+00  0.0000E+00  0.0000E+00  0.0000E+00  0.0000E+00  0.0000E+00  0.0000E+00  0.0000E+00  0.0000E+00
    -18.885  0.0000E+00  0.0000E+00  0.0000E+00  0.0000E+00  0.0000E+00  0.0000E+00  0.0000E+00  0.0000E+00  0.0000E+00
    -18.786  0.0000E+00  0.0000E+00  0.0000E+00  0.0000E+00  0.0000E+00  0.0000E+00  0.0000E+00  0.0000E+00  0.0000E+00
    -18.687  0.0000E+00  0.0000E+00  0.0000E+00  0.0000E+00  0.0000E+00  0.0000E+00  0.0000E+00  0.0000E+00  0.0000E+00
    -18.588  0.0000E+00  0.0000E+00  0.0000E+00  0.0000E+00  0.0000E+00  0.0000E+00  0.0000E+00  0.0000E+00  0.0000E+00
    -18.489  0.0000E+00  0.0000E+00  0.0000E+00  0.0000E+00  0.0000E+00  0.0000E+00  0.0000E+00  0.0000E+00  0.0000E+00
    -18.390  0.0000E+00  0.0000E+00  0.0000E+00  0.0000E+00  0.0000E+00  0.0000E+00  0.0000E+00  0.0000E+00  0.0000E+00
    -18.292  0.0000E+00  0.0000E+00  0.0000E+00  0.0000E+00  0.0000E+00  0.0000E+00  0.0000E+00  0.0000E+00  0.0000E+00
    -18.193  0.0000E+00  0.0000E+00  0.0000E+00  0.0000E+00  0.0000E+00  0.0000E+00  0.0000E+00  0.0000E+00  0.0000E+00
    -18.094  0.0000E+00  0.0000E+00  0.0000E+00  0.0000E+00  0.0000E+00  0.0000E+00  0.0000E+00  0.0000E+00  0.0000E+00
    -17.995  0.0000E+00  0.0000E+00  0.0000E+00  0.0000E+00  0.0000E+00  0.0000E+00  0.0000E+00  0.0000E+00  0.0000E+00
    -17.896  0.0000E+00  0.0000E+00  0.0000E+00  0.0000E+00  0.0000E+00  0.0000E+00  0.0000E+00  0.0000E+00  0.0000E+00
    -17.797  0.0000E+00  0.0000E+00  0.0000E+00  0.0000E+00  0.0000E+00  0.0000E+00  0.0000E+00  0.0000E+00  0.0000E+00
    -17.698  0.0000E+00  0.0000E+00  0.0000E+00  0.0000E+00  0.0000E+00  0.0000E+00  0.0000E+00  0.0000E+00  0.0000E+00
    -17.600  0.0000E+00  0.0000E+00  0.0000E+00  0.0000E+00  0.0000E+00  0.0000E+00  0.0000E+00  0.0000E+00  0.0000E+00
    -17.501  0.0000E+00  0.0000E+00  0.0000E+00  0.0000E+00  0.0000E+00  0.0000E+00  0.0000E+00  0.0000E+00  0.0000E+00
    -17.402  0.0000E+00  0.0000E+00  0.0000E+00  0.0000E+00  0.0000E+00  0.0000E+00  0.0000E+00  0.0000E+00  0.0000E+00
    -17.303  0.0000E+00  0.0000E+00  0.0000E+00  0.0000E+00  0.0000E+00  0.0000E+00  0.0000E+00  0.0000E+00  0.0000E+00
    -17.204  0.0000E+00  0.0000E+00  0.0000E+00  0.0000E+00  0.0000E+00  0.0000E+00  0.0000E+00  0.0000E+00  0.0000E+00
    -17.105  0.0000E+00  0.0000E+00  0.0000E+00  0.0000E+00  0.0000E+00  0.0000E+00  0.0000E+00  0.0000E+00  0.0000E+00
    -17.006  0.0000E+00  0.0000E+00  0.0000E+00  0.0000E+00  0.0000E+00  0.0000E+00  0.0000E+00  0.0000E+00  0.0000E+00
    -16.908  0.0000E+00  0.0000E+00  0.0000E+00  0.0000E+00  0.0000E+00  0.0000E+00  0.0000E+00  0.0000E+00  0.0000E+00
    -16.809  0.0000E+00  0.0000E+00  0.0000E+00  0.0000E+00  0.0000E+00  0.0000E+00  0.0000E+00  0.0000E+00  0.0000E+00
    -16.710  0.0000E+00  0.0000E+00  0.0000E+00  0.0000E+00  0.0000E+00  0.0000E+00  0.0000E+00  0.0000E+00  0.0000E+00
    -16.611  0.0000E+00  0.0000E+00  0.0000E+00  0.0000E+00  0.0000E+00  0.0000E+00  0.0000E+00  0.0000E+00  0.0000E+00
    -16.512  0.0000E+00  0.0000E+00  0.0000E+00  0.0000E+00  0.0000E+00  0.0000E+00  0.0000E+00  0.0000E+00  0.0000E+00
    -16.413  0.0000E+00  0.0000E+00  0.0000E+00  0.0000E+00  0.0000E+00  0.0000E+00  0.0000E+00  0.0000E+00  0.0000E+00
    -16.314  0.0000E+00  0.0000E+00  0.0000E+00  0.0000E+00  0.0000E+00  0.0000E+00  0.0000E+00  0.0000E+00  0.0000E+00
    -16.216  0.0000E+00  0.0000E+00  0.0000E+00  0.0000E+00  0.0000E+00  0.0000E+00  0.0000E+00  0.0000E+00  0.0000E+00
    -16.117  0.0000E+00  0.0000E+00  0.0000E+00  0.0000E+00  0.0000E+00  0.0000E+00  0.0000E+00  0.0000E+00  0.0000E+00
    -16.018  0.0000E+00  0.0000E+00  0.0000E+00  0.0000E+00  0.0000E+00  0.0000E+00  0.0000E+00  0.0000E+00  0.0000E+00
    -15.919  0.0000E+00  0.0000E+00  0.0000E+00  0.0000E+00  0.0000E+00  0.0000E+00  0.0000E+00  0.0000E+00  0.0000E+00
    -15.820  0.0000E+00  0.0000E+00  0.0000E+00  0.0000E+00  0.0000E+00  0.0000E+00  0.0000E+00  0.0000E+00  0.0000E+00
    -15.721  0.0000E+00  0.0000E+00  0.0000E+00  0.0000E+00  0.0000E+00  0.0000E+00  0.0000E+00  0.0000E+00  0.0000E+00
    -15.622  0.0000E+00  0.0000E+00  0.0000E+00  0.0000E+00  0.0000E+00  0.0000E+00  0.0000E+00  0.0000E+00  0.0000E+00
    -15.524  0.0000E+00  0.0000E+00  0.0000E+00  0.0000E+00  0.0000E+00  0.0000E+00  0.0000E+00  0.0000E+00  0.0000E+00
    -15.425  0.0000E+00  0.0000E+00  0.0000E+00  0.0000E+00  0.0000E+00  0.0000E+00  0.0000E+00  0.0000E+00  0.0000E+00
    -15.326  0.0000E+00  0.0000E+00  0.0000E+00  0.0000E+00  0.0000E+00  0.0000E+00  0.0000E+00  0.0000E+00  0.0000E+00
    -15.227  0.0000E+00  0.0000E+00  0.0000E+00  0.0000E+00  0.0000E+00  0.0000E+00  0.0000E+00  0.0000E+00  0.0000E+00
    -15.128  0.0000E+00  0.0000E+00  0.0000E+00  0.0000E+00  0.0000E+00  0.0000E+00  0.0000E+00  0.0000E+00  0.0000E+00
    -15.029  0.0000E+00  0.0000E+00  0.0000E+00  0.0000E+00  0.0000E+00  0.0000E+00  0.0000E+00  0.0000E+00  0.0000E+00
    -14.930  0.0000E+00  0.0000E+00  0.0000E+00  0.0000E+00  0.0000E+00  0.0000E+00  0.0000E+00  0.0000E+00  0.0000E+00
    -14.832  0.0000E+00  0.0000E+00  0.0000E+00  0.0000E+00  0.0000E+00  0.0000E+00  0.0000E+00  0.0000E+00  0.0000E+00
    -14.733  0.0000E+00  0.0000E+00  0.0000E+00  0.0000E+00  0.0000E+00  0.0000E+00  0.0000E+00  0.0000E+00  0.0000E+00
    -14.634  0.0000E+00  0.0000E+00  0.0000E+00  0.0000E+00  0.0000E+00  0.0000E+00  0.0000E+00  0.0000E+00  0.0000E+00
    -14.535  0.1917E-16  0.2774E-31  0.2774E-31  0.2774E-31  0.4090E-30  0.4090E-30  0.2856E-31  0.4090E-30  0.2856E-31
    -14.436  0.5659E-12  0.1204E-15  0.1204E-15  0.1204E-15  0.2332E-24  0.2332E-24  0.1571E-16  0.2332E-24  0.1571E-16
    -14.337  0.2557E-08  0.1547E-11  0.1547E-11  0.1547E-11  0.8182E-20  0.8182E-20  0.1990E-12  0.8182E-20  0.1990E-12
    -14.238  0.1866E-05  0.3084E-08  0.3084E-08  0.3084E-08  0.4376E-16  0.4376E-16  0.3832E-09  0.4376E-16  0.3832E-09
    -14.140  0.2502E-03  0.1040E-05  0.1040E-05  0.1040E-05  0.3850E-13  0.3850E-13  0.1205E-06  0.3850E-13  0.1205E-06
    -14.041  0.7556E-02  0.6892E-04  0.6892E-04  0.6892E-04  0.6076E-11  0.6076E-11  0.7330E-05  0.6076E-11  0.7330E-05
    -13.942  0.6400E-01  0.1088E-02  0.1088E-02  0.1088E-02  0.1931E-09  0.1931E-09  0.1197E-03  0.1931E-09  0.1197E-03
    -13.843  0.1827E+00  0.5207E-02  0.5207E-02  0.5207E-02  0.1479E-08  0.1479E-08  0.7363E-03  0.1479E-08  0.7363E-03
    -13.744  0.2063E+00  0.1388E-01  0.1388E-01  0.1388E-01  0.4179E-08  0.4179E-08  0.1929E-02  0.4179E-08  0.1929E-02
    -13.645  0.1031E+00  0.3692E-01  0.3692E-01  0.3692E-01  0.7795E-08  0.7795E-08  0.4616E-02  0.7795E-08  0.4616E-02
    -13.546  0.2619E-01  0.4410E-01  0.4410E-01  0.4410E-01  0.7345E-08  0.7345E-08  0.1283E-01  0.7345E-08  0.1283E-01
    -13.447  0.4431E-02  0.1702E-01  0.1702E-01  0.1702E-01  0.2473E-08  0.2473E-08  0.1205E-01  0.2473E-08  0.1205E-01
    -13.349  0.5123E-03  0.1899E-02  0.1899E-02  0.1899E-02  0.2797E-09  0.2797E-09  0.2806E-02  0.2797E-09  0.2806E-02
    -13.250  0.1714E-04  0.4799E-04  0.4799E-04  0.4799E-04  0.8123E-11  0.8123E-11  0.1465E-03  0.8123E-11  0.1465E-03
    -13.151  0.1020E-06  0.2283E-06  0.2283E-06  0.2283E-06  0.4597E-13  0.4597E-13  0.1505E-05  0.4597E-13  0.1505E-05
    -13.052  0.9592E-10  0.1858E-09  0.1858E-09  0.1858E-09  0.4381E-16  0.4381E-16  0.2676E-08  0.4381E-16  0.2676E-08
    -12.953  0.1369E-13  0.2437E-13  0.2437E-13  0.2437E-13  0.6530E-20  0.6530E-20  0.7567E-12  0.6530E-20  0.7567E-12
    -12.854  0.2163E-18  0.3561E-18  0.3561E-18  0.3561E-18  0.1513E-24  0.1513E-24  0.3240E-16  0.1513E-24  0.3240E-16
    -12.755  0.0000E+00  0.0000E+00  0.0000E+00  0.0000E+00  0.0000E+00  0.0000E+00  0.0000E+00  0.0000E+00  0.0000E+00
    -12.657  0.0000E+00  0.0000E+00  0.0000E+00  0.0000E+00  0.0000E+00  0.0000E+00  0.0000E+00  0.0000E+00  0.0000E+00
    -12.558  0.0000E+00  0.0000E+00  0.0000E+00  0.0000E+00  0.0000E+00  0.0000E+00  0.0000E+00  0.0000E+00  0.0000E+00
    -12.459  0.0000E+00  0.0000E+00  0.0000E+00  0.0000E+00  0.0000E+00  0.0000E+00  0.0000E+00  0.0000E+00  0.0000E+00
    -12.360  0.0000E+00  0.0000E+00  0.0000E+00  0.0000E+00  0.0000E+00  0.0000E+00  0.0000E+00  0.0000E+00  0.0000E+00
    -12.261  0.0000E+00  0.0000E+00  0.0000E+00  0.0000E+00  0.0000E+00  0.0000E+00  0.0000E+00  0.0000E+00  0.0000E+00
    -12.162  0.0000E+00  0.0000E+00  0.0000E+00  0.0000E+00  0.0000E+00  0.0000E+00  0.0000E+00  0.0000E+00  0.0000E+00
    -12.063  0.0000E+00  0.0000E+00  0.0000E+00  0.0000E+00  0.0000E+00  0.0000E+00  0.0000E+00  0.0000E+00  0.0000E+00
    -11.965  0.0000E+00  0.0000E+00  0.0000E+00  0.0000E+00  0.0000E+00  0.0000E+00  0.0000E+00  0.0000E+00  0.0000E+00
    -11.866  0.0000E+00  0.0000E+00  0.0000E+00  0.0000E+00  0.0000E+00  0.0000E+00  0.0000E+00  0.0000E+00  0.0000E+00
    -11.767  0.0000E+00  0.0000E+00  0.0000E+00  0.0000E+00  0.0000E+00  0.0000E+00  0.0000E+00  0.0000E+00  0.0000E+00
    -11.668  0.0000E+00  0.0000E+00  0.0000E+00  0.0000E+00  0.0000E+00  0.0000E+00  0.0000E+00  0.0000E+00  0.0000E+00
    -11.569  0.0000E+00  0.0000E+00  0.0000E+00  0.0000E+00  0.0000E+00  0.0000E+00  0.0000E+00  0.0000E+00  0.0000E+00
    -11.470  0.0000E+00  0.0000E+00  0.0000E+00  0.0000E+00  0.0000E+00  0.0000E+00  0.0000E+00  0.0000E+00  0.0000E+00
    -11.371  0.0000E+00  0.0000E+00  0.0000E+00  0.0000E+00  0.0000E+00  0.0000E+00  0.0000E+00  0.0000E+00  0.0000E+00
    -11.273  0.0000E+00  0.0000E+00  0.0000E+00  0.0000E+00  0.0000E+00  0.0000E+00  0.0000E+00  0.0000E+00  0.0000E+00
    -11.174  0.0000E+00  0.0000E+00  0.0000E+00  0.0000E+00  0.0000E+00  0.0000E+00  0.0000E+00  0.0000E+00  0.0000E+00
    -11.075  0.0000E+00  0.0000E+00  0.0000E+00  0.0000E+00  0.0000E+00  0.0000E+00  0.0000E+00  0.0000E+00  0.0000E+00
    -10.976  0.0000E+00  0.0000E+00  0.0000E+00  0.0000E+00  0.0000E+00  0.0000E+00  0.0000E+00  0.0000E+00  0.0000E+00
    -10.877  0.0000E+00  0.0000E+00  0.0000E+00  0.0000E+00  0.0000E+00  0.0000E+00  0.0000E+00  0.0000E+00  0.0000E+00
    -10.778  0.0000E+00  0.0000E+00  0.0000E+00  0.0000E+00  0.0000E+00  0.0000E+00  0.0000E+00  0.0000E+00  0.0000E+00
    -10.679  0.0000E+00  0.0000E+00  0.0000E+00  0.0000E+00  0.0000E+00  0.0000E+00  0.0000E+00  0.0000E+00  0.0000E+00
    -10.581  0.0000E+00  0.0000E+00  0.0000E+00  0.0000E+00  0.0000E+00  0.0000E+00  0.0000E+00  0.0000E+00  0.0000E+00
    -10.482  0.0000E+00  0.0000E+00  0.0000E+00  0.0000E+00  0.0000E+00  0.0000E+00  0.0000E+00  0.0000E+00  0.0000E+00
    -10.383  0.0000E+00  0.0000E+00  0.0000E+00  0.0000E+00  0.0000E+00  0.0000E+00  0.0000E+00  0.0000E+00  0.0000E+00
    -10.284  0.0000E+00  0.0000E+00  0.0000E+00  0.0000E+00  0.0000E+00  0.0000E+00  0.0000E+00  0.0000E+00  0.0000E+00
    -10.185  0.0000E+00  0.0000E+00  0.0000E+00  0.0000E+00  0.0000E+00  0.0000E+00  0.0000E+00  0.0000E+00  0.0000E+00
    -10.086  0.0000E+00  0.0000E+00  0.0000E+00  0.0000E+00  0.0000E+00  0.0000E+00  0.0000E+00  0.0000E+00  0.0000E+00
     -9.987  0.0000E+00  0.0000E+00  0.0000E+00  0.0000E+00  0.0000E+00  0.0000E+00  0.0000E+00  0.0000E+00  0.0000E+00
     -9.889  0.0000E+00  0.0000E+00  0.0000E+00  0.0000E+00  0.0000E+00  0.0000E+00  0.0000E+00  0.0000E+00  0.0000E+00
     -9.790  0.0000E+00  0.0000E+00  0.0000E+00  0.0000E+00  0.0000E+00  0.0000E+00  0.0000E+00  0.0000E+00  0.0000E+00
     -9.691  0.0000E+00  0.0000E+00  0.0000E+00  0.0000E+00  0.0000E+00  0.0000E+00  0.0000E+00  0.0000E+00  0.0000E+00
     -9.592  0.0000E+00  0.0000E+00  0.0000E+00  0.0000E+00  0.0000E+00  0.0000E+00  0.0000E+00  0.0000E+00  0.0000E+00
     -9.493  0.0000E+00  0.0000E+00  0.0000E+00  0.0000E+00  0.0000E+00  0.0000E+00  0.0000E+00  0.0000E+00  0.0000E+00
     -9.394  0.0000E+00  0.0000E+00  0.0000E+00  0.0000E+00  0.0000E+00  0.0000E+00  0.0000E+00  0.0000E+00  0.0000E+00
     -9.295  0.0000E+00  0.0000E+00  0.0000E+00  0.0000E+00  0.0000E+00  0.0000E+00  0.0000E+00  0.0000E+00  0.0000E+00
     -9.197  0.0000E+00  0.0000E+00  0.0000E+00  0.0000E+00  0.0000E+00  0.0000E+00  0.0000E+00  0.0000E+00  0.0000E+00
     -9.098  0.0000E+00  0.0000E+00  0.0000E+00  0.0000E+00  0.0000E+00  0.0000E+00  0.0000E+00  0.0000E+00  0.0000E+00
     -8.999  0.0000E+00  0.0000E+00  0.0000E+00  0.0000E+00  0.0000E+00  0.0000E+00  0.0000E+00  0.0000E+00  0.0000E+00
     -8.900  0.0000E+00  0.0000E+00  0.0000E+00  0.0000E+00  0.0000E+00  0.0000E+00  0.0000E+00  0.0000E+00  0.0000E+00
     -8.801  0.1248E-16  0.2001E-32  0.2001E-32  0.2001E-32  0.1921E-34  0.1921E-34  0.2211E-35  0.1921E-34  0.2211E-35
     -8.702  0.3754E-12  0.6020E-28  0.6020E-28  0.6020E-28  0.5779E-30  0.5779E-30  0.6650E-31  0.5779E-30  0.6650E-31
     -8.603  0.2954E-08  0.4737E-24  0.4737E-24  0.4737E-24  0.4548E-26  0.4548E-26  0.5233E-27  0.4548E-26  0.5233E-27
     -8.505  0.3474E-05  0.9140E-16  0.9140E-16  0.9140E-16  0.5357E-23  0.5357E-23  0.1706E-16  0.5357E-23  0.1706E-16
     -8.406  0.6297E-03  0.1309E-11  0.1309E-11  0.1309E-11  0.1088E-20  0.1088E-20  0.2443E-12  0.1088E-20  0.2443E-12
     -8.307  0.1854E-01  0.2785E-08  0.2785E-08  0.2785E-08  0.2803E-18  0.2803E-18  0.5198E-09  0.2803E-18  0.5198E-09
     -8.208  0.9662E-01  0.9027E-06  0.9027E-06  0.9027E-06  0.1051E-15  0.1051E-15  0.1685E-06  0.1051E-15  0.1685E-06
     -8.109  0.1394E+00  0.4662E-04  0.4662E-04  0.4662E-04  0.2479E-12  0.2479E-12  0.8700E-05  0.2479E-12  0.8700E-05
     -8.010  0.4298E+00  0.4121E-03  0.4121E-03  0.4121E-03  0.4300E-09  0.4300E-09  0.7685E-04  0.4300E-09  0.7685E-04
     -7.911  0.7032E+00  0.7344E-03  0.7344E-03  0.7344E-03  0.1246E-06  0.1246E-06  0.1321E-03  0.1246E-06  0.1321E-03
     -7.812  0.7281E+00  0.1260E-02  0.1260E-02  0.1260E-02  0.6051E-05  0.6051E-05  0.1777E-03  0.6051E-05  0.1777E-03
     -7.714  0.1671E+01  0.3193E-02  0.3193E-02  0.3193E-02  0.5225E-04  0.5225E-04  0.5464E-03  0.5225E-04  0.5464E-03
     -7.615  0.1237E+01  0.2463E-02  0.2463E-02  0.2463E-02  0.8594E-04  0.8594E-04  0.4926E-03  0.8594E-04  0.4926E-03
     -7.516  0.1516E+01  0.3769E-02  0.3769E-02  0.3769E-02  0.2757E-04  0.2757E-04  0.5648E-03  0.2757E-04  0.5648E-03
     -7.417  0.2234E+01  0.4722E-02  0.4722E-02  0.4722E-02  0.1684E-05  0.1684E-05  0.1087E-02  0.1684E-05  0.1087E-02
     -7.318  0.9935E+00  0.1956E-02  0.1956E-02  0.1956E-02  0.3063E-07  0.3063E-07  0.5402E-03  0.3063E-07  0.5402E-03
     -7.219  0.1384E+01  0.3405E-02  0.3405E-02  0.3405E-02  0.2014E-07  0.2014E-07  0.5891E-03  0.2014E-07  0.5891E-03
     -7.120  0.1563E+01  0.3368E-02  0.3368E-02  0.3368E-02  0.1998E-07  0.1998E-07  0.7987E-03  0.1998E-07  0.7987E-03
     -7.022  0.4550E+00  0.7417E-03  0.7417E-03  0.7417E-03  0.3784E-08  0.3784E-08  0.2821E-03  0.3784E-08  0.2821E-03
     -6.923  0.5118E+00  0.8445E-03  0.8445E-03  0.8445E-03  0.1256E-09  0.1256E-09  0.1995E-03  0.1256E-09  0.1995E-03
     -6.824  0.7175E+00  0.1204E-02  0.1204E-02  0.1204E-02  0.6810E-12  0.6810E-12  0.2660E-03  0.6810E-12  0.2660E-03