    5    5    1    1
  0.4307497E+02  0.5994206E-09  0.5994206E-09  0.5994206E-09  0.5000000E-15
  1.000000000000000E-004
  CAR 
 unknown system                          
     34     10     22
 
  0.0000000E+00  0.0000000E+00  0.0000000E+00  0.1562500E-01
      1        -20.897917   1.000000
      2        -13.974596   1.000000
      3        -13.501227   1.000000
      4        -13.501227   1.000000
      5         -7.677912   1.000000
      6         -7.677912   1.000000
      7         -7.677912   1.000000
      8         -6.542921   1.000000
      9         -3.470510   1.000000
     10         -3.470510   1.000000
     11         -3.470510   1.000000
     12         -1.421785   1.000000
     13         -1.421785   1.000000
     14         -1.421785   1.000000
     15         -1.333215   1.000000
     16         -1.333215   1.000000
     17         -1.333215   1.000000
     18          3.608642   0.000000
     19          4.805982   0.000000
     20          4.805982   0.000000
     21          5.534571   0.000000
     22          5.534571   0.000000
 
  0.2500000E+00  0.0000000E+00  0.0000000E+00  0.9375000E-01
      1        -20.897567   1.000000
      2        -13.919836   1.000000
      3        -13.559550   1.000000
      4        -13.500499   1.000000
      5         -7.675030   1.000000
      6         -7.673683   1.000000
      7         -7.673683   1.000000
      8         -6.900156   1.000000
      9         -3.427473   1.000000
     10         -3.427473   1.000000
     11         -2.635187   1.000000
     12         -1.484624   1.000000
     13         -1.484624   1.000000
     14         -1.478111   1.000000
     15         -1.381599   1.000000
     16         -1.381599   1.000000
     17         -1.337431   1.000000
     18          4.102746   0.000000
     19          4.631728   0.000000
     20          5.154364   0.000000
     21          5.210526   0.000000
     22          5.651701   0.000000
 
  0.5000000E+00  0.0000000E+00  0.0000000E+00  0.4687500E-01
      1        -20.897226   1.000000
      2        -13.834988   1.000000
      3        -13.648019   1.000000
      4        -13.499780   1.000000
      5         -7.672219   1.000000
      6         -7.669441   1.000000
      7         -7.669441   1.000000
      8         -7.167773   1.000000
      9         -3.381303   1.000000
     10         -3.381303   1.000000
     11         -2.020329   1.000000
     12         -1.561207   1.000000
     13         -1.561207   1.000000
     14         -1.532087   1.000000
     15         -1.417777   1.000000
     16         -1.417777   1.000000
     17         -0.919727   1.000000
     18          2.995531   0.000000
     19          4.996675   0.000000
     20          5.616807   0.000000
     21          5.617280   0.000000
     22          5.667411   0.000000
 
  0.2500000E+00  0.2500000E+00  0.0000000E+00  0.1875000E+00
      1        -20.897235   1.000000
      2        -13.867822   1.000000
      3        -13.576387   1.000000
      4        -13.534116   1.000000
      5         -7.682025   1.000000
      6         -7.671299   1.000000
      7         -7.669884   1.000000
      8         -7.218659   1.000000
      9         -3.375888   1.000000
     10         -2.783372   1.000000
     11         -2.451139   1.000000
     12         -1.753058   1.000000
     13         -1.525173   1.000000
     14         -1.460488   1.000000
     15         -1.425237   1.000000
     16         -1.282734   1.000000
     17         -1.220415   1.000000
     18          4.220736   0.000000
     19          4.291566   0.000000
     20          4.783987   0.000000
     21          5.460275   0.000000
     22          5.537498   0.000000
 
  0.5000000E+00  0.2500000E+00  0.0000000E+00  0.1875000E+00
      1        -20.896913   1.000000
      2        -13.783573   1.000000
      3        -13.648299   1.000000
      4        -13.544943   1.000000
      5         -7.679685   1.000000
      6         -7.678328   1.000000
      7         -7.666074   1.000000
      8         -7.468272   1.000000
      9         -3.319713   1.000000
     10         -2.588177   1.000000
     11         -2.136250   1.000000
     12         -1.708916   1.000000
     13         -1.591746   1.000000
     14         -1.516650   1.000000
     15         -1.457313   1.000000
     16         -1.187129   1.000000
     17         -0.768688   1.000000
     18          2.778857   0.000000
     19          4.150081   0.000000
     20          5.388487   0.000000
     21          5.416612   0.000000
     22          5.747481   0.000000
 
  0.5000000E+00  0.5000000E+00  0.0000000E+00  0.4687500E-01
      1        -20.896599   1.000000
      2        -13.673702   1.000000
      3        -13.648585   1.000000
      4        -13.648585   1.000000
      5         -7.709715   1.000000
      6         -7.687114   1.000000
      7         -7.687114   1.000000
      8         -7.662699   1.000000
      9         -3.251363   1.000000
     10         -2.243931   1.000000
     11         -1.699805   1.000000
     12         -1.699805   1.000000
     13         -1.624280   1.000000
     14         -1.621815   1.000000
     15         -1.621815   1.000000
     16         -0.999680   1.000000
     17         -0.292421   1.000000
     18          2.565033   0.000000
     19          2.565033   0.000000
     20          5.231333   0.000000
     21          5.750561   0.000000
     22          6.063812   0.000000
 
  0.2500000E+00  0.2500000E+00  0.2500000E+00  0.1250000E+00
      1        -20.896940   1.000000
      2        -13.821424   1.000000
      3        -13.575203   1.000000
      4        -13.575203   1.000000
      5         -7.684305   1.000000
      6         -7.684305   1.000000
      7         -7.667634   1.000000
      8         -7.511700   1.000000
      9         -2.725955   1.000000
     10         -2.725955   1.000000
     11         -2.327311   1.000000
     12         -1.787494   1.000000
     13         -1.787494   1.000000
     14         -1.351507   1.000000
     15         -1.237311   1.000000
     16         -1.237311   1.000000
     17         -1.216062   1.000000
     18          4.057951   0.000000
     19          4.057951   0.000000
     20          4.086980   0.000000
     21          5.041907   0.000000
     22          5.703776   0.000000
 
  0.5000000E+00  0.2500000E+00  0.2500000E+00  0.1875000E+00
      1        -20.896645   1.000000
      2        -13.743655   1.000000
      3        -13.647650   1.000000
      4        -13.574017   1.000000
      5         -7.749130   1.000000
      6         -7.687549   1.000000
      7         -7.686595   1.000000
      8         -7.675128   1.000000
      9         -2.657149   1.000000
     10         -2.419057   1.000000
     11         -2.126873   1.000000
     12         -1.941327   1.000000
     13         -1.746892   1.000000
     14         -1.291008   1.000000
     15         -1.242190   1.000000
     16         -1.140697   1.000000
     17         -0.667049   1.000000
     18          2.552274   0.000000
     19          3.877473   0.000000
     20          3.948981   0.000000
     21          5.384367   0.000000
     22          5.911796   0.000000
 
  0.5000000E+00  0.5000000E+00  0.2500000E+00  0.9375000E-01
      1        -20.896345   1.000000
      2        -13.659711   1.000000
      3        -13.647004   1.000000
      4        -13.647004   1.000000
      5         -7.981219   1.000000
      6         -7.695482   1.000000
      7         -7.695482   1.000000
      8         -7.683429   1.000000
      9         -2.471197   1.000000
     10         -2.165961   1.000000
     11         -1.978530   1.000000
     12         -1.978530   1.000000
     13         -1.621600   1.000000
     14         -1.227536   1.000000
     15         -1.227536   1.000000
     16         -0.994322   1.000000
     17         -0.168227   1.000000
     18          2.324575   0.000000
     19          2.324575   0.000000
     20          3.719928   0.000000
     21          5.486375   0.000000
     22          5.942543   0.000000
 
  0.5000000E+00  0.5000000E+00  0.5000000E+00  0.1562500E-01
      1        -20.896095   1.000000
      2        -13.645409   1.000000
      3        -13.645409   1.000000
      4        -13.645409   1.000000
      5         -8.209896   1.000000
      6         -7.703841   1.000000
      7         -7.703841   1.000000
      8         -7.703841   1.000000
      9         -2.086396   1.000000
     10         -2.086396   1.000000
     11         -2.086396   1.000000
     12         -1.618902   1.000000
     13         -1.618902   1.000000
     14         -0.988927   1.000000
     15         -0.988927   1.000000
     16         -0.988927   1.000000
     17          0.311581   1.000000
     18          2.076207   0.000000
     19          2.076207   0.000000
     20          2.076207   0.000000
     21          5.103166   0.000000
     22          5.785353   0.000000
